  python dir          : /gpfs/pace1/project/chbe-medford/medford-share/gits/frozen/ben_espresso_8_24_2017/espresso
  espresso dir        : /gpfs/pace1/project/chbe-medford/medford-share/builds/espresso/5.1.r11289-pybeef/intel-17.0+mvapich2-2.2+mkl-11.3/espresso-5.1.r11289-pybeef/bin
  pseudo dir          : /gpfs/pace1/project/chbe-medford/medford-share/data/pseudos/SSSP_eff_PBE
  ase-espresso py git : GITVERSION



     Program PWSCF v.5.1rc2 starts on 25Jan2018 at 16:53:31 

     This program is part of the open-source Quantum ESPRESSO suite
     for quantum simulation of materials; please cite
         "P. Giannozzi et al., J. Phys.:Condens. Matter 21 395502 (2009);
          URL http://www.quantum-espresso.org", 
     in publications or presentations arising from this work. More details at
     http://www.quantum-espresso.org/quote

     Parallel version (MPI), running on     1 processors
     Reading input from pw.inp
     Message from routine read_cards :
     DEPRECATED: no units specified in CELL_PARAMETERS card

     Current dimensions of program PWSCF are:
     Max number of different atomic species (ntypx) = 10
     Max number of k-points (npk) =  40000
     Max angular momentum in pseudopotentials (lmaxx) =  3

     IMPORTANT: XC functional enforced from input :
     Exchange-correlation      = PBE ( 1  4  3  4 0)
     Any further DFT definition will be discarded
     Please, verify this is what you really want


     Subspace diagonalization in iterative solution of the eigenvalue problem:
     a serial algorithm will be used

 
     G-vector sticks info
     --------------------
     sticks:   dense  smooth     PW     G-vecs:    dense   smooth      PW
     Sum        2515    1003    301               406929   102965   16511
 


     bravais-lattice index     =            0
     lattice parameter (alat)  =       1.8897  a.u.
     unit-cell volume          =    4005.1195 (a.u.)^3
     number of atoms/cell      =           10
     number of atomic types    =            3
     number of electrons       =       138.00
     number of Kohn-Sham states=           79
     kinetic-energy cutoff     =      33.0744  Ry
     charge density cutoff     =     330.7439  Ry
     convergence threshold     =      7.3E-08
     mixing beta               =       0.0500
     number of iterations used =            8  local-TF  mixing
     Exchange-correlation      = PBE ( 1  4  3  4 0)
     nstep                     =           50


     celldm(1)=   1.889726  celldm(2)=   0.000000  celldm(3)=   0.000000
     celldm(4)=   0.000000  celldm(5)=   0.000000  celldm(6)=   0.000000

     crystal axes: (cart. coord. in units of alat)
               a(1) = (   5.547960   0.000000   0.000000 )  
               a(2) = (  -2.773980   4.804674   0.000000 )  
               a(3) = (   0.000000   0.000000  22.264945 )  

     reciprocal axes: (cart. coord. in units 2 pi/alat)
               b(1) = (  0.180246  0.104065  0.000000 )  
               b(2) = (  0.000000  0.208131  0.000000 )  
               b(3) = (  0.000000  0.000000  0.044914 )  


     PseudoPot. # 1 for Pt read from file:
     /gpfs/pace1/project/chbe-medford/medford-share/data/pseudos/SSSP_eff_PBE/Pt.UPF
     MD5 check sum: f09d6de1a584b5a045c4fc126da2d0c4
     Pseudo is Ultrasoft + core correction, Zval = 16.0
     Generated by new atomic code, or converted to UPF format
     Using radial grid of  985 points,  6 beta functions with: 
                l(1) =   0
                l(2) =   0
                l(3) =   1
                l(4) =   1
                l(5) =   2
                l(6) =   2
     Q(r) pseudized with  8 coefficients,  rinner =    1.300   1.300   1.300
                                                       1.300   1.300

     PseudoPot. # 2 for O  read from file:
     /gpfs/pace1/project/chbe-medford/medford-share/data/pseudos/SSSP_eff_PBE/O.UPF
     MD5 check sum: 734c27235a0248c51dbae37a1fbe46ec
     Pseudo is Ultrasoft + core correction, Zval =  6.0
     Generated by new atomic code, or converted to UPF format
     Using radial grid of  737 points,  5 beta functions with: 
                l(1) =   0
                l(2) =   0
                l(3) =   1
                l(4) =   1
                l(5) =   2
     Q(r) pseudized with  8 coefficients,  rinner =    0.900   0.900   0.900
                                                       0.900   0.900

     PseudoPot. # 3 for C  read from file:
     /gpfs/pace1/project/chbe-medford/medford-share/data/pseudos/SSSP_eff_PBE/C.UPF
     MD5 check sum: d1aef80898a10debaa0f26306b886e00
     Pseudo is Ultrasoft + core correction, Zval =  4.0
     Generated by new atomic code, or converted to UPF format
     Using radial grid of  721 points,  4 beta functions with: 
                l(1) =   0
                l(2) =   0
                l(3) =   1
                l(4) =   1
     Q(r) pseudized with  8 coefficients,  rinner =    1.100   1.100   1.100


     atomic species   valence    mass     pseudopotential
        Pt1           16.00   195.08000     Pt( 1.00)
        O1             6.00    15.99940     O ( 1.00)
        C1             4.00    12.01100     C ( 1.00)

     No symmetry found



   Cartesian axes

     site n.     atom                  positions (alat units)
         1           Pt1 tau(   1) = (   0.0000000   0.0000000  10.0000000  )
         2           Pt1 tau(   2) = (  -1.3869900   2.4023371  10.0000000  )
         3           Pt1 tau(   3) = (   1.3869900   2.4023371  10.0000000  )
         4           Pt1 tau(   4) = (   2.7739799   0.0000000  10.0000000  )
         5           Pt1 tau(   5) = (   2.7739799   1.6015580  12.2649451  )
         6           Pt1 tau(   6) = (   1.3869900   4.0038951  12.2649451  )
         7           Pt1 tau(   7) = (  -1.3869900   4.0038951  12.2649451  )
         8           Pt1 tau(   8) = (   0.0000000   1.6015580  12.2649451  )
         9           O1  tau(   9) = (   1.0000000   1.0000000  14.1149451  )
        10           C1  tau(  10) = (   1.0000000   1.0000000  12.9646051  )

     number of k points=    88  Fermi-Dirac smearing, width (Ry)=  0.0073
                       cart. coord. in units 2pi/alat
        k(    1) = (   0.0000000   0.0000000   0.0000000), wk =   0.0571429
        k(    2) = (   0.0000000   0.0297330   0.0000000), wk =   0.0380952
        k(    3) = (   0.0000000   0.0594659   0.0000000), wk =   0.0380952
        k(    4) = (   0.0000000   0.0891989   0.0000000), wk =   0.0380952
        k(    5) = (   0.0360493   0.0208131   0.0000000), wk =   0.0380952
        k(    6) = (   0.0360493   0.0505460   0.0000000), wk =   0.0190476
        k(    7) = (   0.0360493   0.0802790   0.0000000), wk =   0.0190476
        k(    8) = (   0.0360493   0.1100119   0.0000000), wk =   0.0190476
        k(    9) = (   0.0360493  -0.0683858   0.0000000), wk =   0.0190476
        k(   10) = (   0.0360493  -0.0386528   0.0000000), wk =   0.0190476
        k(   11) = (   0.0360493  -0.0089199   0.0000000), wk =   0.0190476
        k(   12) = (   0.0720986   0.0416261   0.0000000), wk =   0.0380952
        k(   13) = (   0.0720986   0.0713591   0.0000000), wk =   0.0190476
        k(   14) = (   0.0720986   0.1010920   0.0000000), wk =   0.0190476
        k(   15) = (   0.0720986   0.1308250   0.0000000), wk =   0.0190476
        k(   16) = (   0.0720986  -0.0475727   0.0000000), wk =   0.0190476
        k(   17) = (   0.0720986  -0.0178398   0.0000000), wk =   0.0190476
        k(   18) = (   0.0720986   0.0118932   0.0000000), wk =   0.0190476
        k(   19) = (  -0.0257495   0.0148665   0.0000000), wk =   0.0380952
        k(   20) = (   0.0257495   0.0148665   0.0000000), wk =   0.0380952
        k(   21) = (  -0.0514990   0.0297330   0.0000000), wk =   0.0380952
        k(   22) = (   0.0514990   0.0297330   0.0000000), wk =   0.0380952
        k(   23) = (  -0.0772485   0.0445994   0.0000000), wk =   0.0380952
        k(   24) = (   0.0772485   0.0445994   0.0000000), wk =   0.0380952
        k(   25) = (  -0.0360493   0.0208131   0.0000000), wk =   0.0380952
        k(   26) = (   0.0000000   0.0416261   0.0000000), wk =   0.0380952
        k(   27) = (  -0.0360493   0.0505460   0.0000000), wk =   0.0190476
        k(   28) = (  -0.0257495   0.0564926   0.0000000), wk =   0.0190476
        k(   29) = (   0.0617988  -0.0059466   0.0000000), wk =   0.0190476
        k(   30) = (  -0.0257495  -0.0564926   0.0000000), wk =   0.0190476
        k(   31) = (   0.0617988   0.0059466   0.0000000), wk =   0.0190476
        k(   32) = (  -0.0360493   0.0802790   0.0000000), wk =   0.0190476
        k(   33) = (  -0.0514990   0.0713591   0.0000000), wk =   0.0190476
        k(   34) = (   0.0875483   0.0089199   0.0000000), wk =   0.0190476
        k(   35) = (  -0.0514990  -0.0713591   0.0000000), wk =   0.0190476
        k(   36) = (   0.0875483  -0.0089199   0.0000000), wk =   0.0190476
        k(   37) = (  -0.0360493   0.1100119   0.0000000), wk =   0.0190476
        k(   38) = (  -0.0772485   0.0862256   0.0000000), wk =   0.0190476
        k(   39) = (   0.1132978   0.0237864   0.0000000), wk =   0.0190476
        k(   40) = (  -0.0772485  -0.0862256   0.0000000), wk =   0.0190476
        k(   41) = (   0.1132978  -0.0237864   0.0000000), wk =   0.0190476
        k(   42) = (  -0.0360493  -0.0683858   0.0000000), wk =   0.0190476
        k(   43) = (   0.0772485  -0.0029733   0.0000000), wk =   0.0190476
        k(   44) = (  -0.0411992  -0.0654125   0.0000000), wk =   0.0190476
        k(   45) = (   0.0772485   0.0029733   0.0000000), wk =   0.0190476
        k(   46) = (  -0.0411992   0.0654125   0.0000000), wk =   0.0190476
        k(   47) = (  -0.0360493  -0.0386528   0.0000000), wk =   0.0190476
        k(   48) = (   0.0514990   0.0118932   0.0000000), wk =   0.0190476
        k(   49) = (  -0.0154497  -0.0505460   0.0000000), wk =   0.0190476
        k(   50) = (   0.0514990  -0.0118932   0.0000000), wk =   0.0190476
        k(   51) = (  -0.0154497   0.0505460   0.0000000), wk =   0.0190476
        k(   52) = (  -0.0360493  -0.0089199   0.0000000), wk =   0.0190476
        k(   53) = (   0.0257495   0.0267597   0.0000000), wk =   0.0190476
        k(   54) = (   0.0102998  -0.0356795   0.0000000), wk =   0.0190476
        k(   55) = (   0.0257495  -0.0267597   0.0000000), wk =   0.0190476
        k(   56) = (   0.0102998   0.0356795   0.0000000), wk =   0.0190476
        k(   57) = (  -0.0720986   0.0416261   0.0000000), wk =   0.0380952
        k(   58) = (   0.0000000   0.0832523   0.0000000), wk =   0.0380952
        k(   59) = (  -0.0720986   0.0713591   0.0000000), wk =   0.0190476
        k(   60) = (  -0.0257495   0.0981187   0.0000000), wk =   0.0190476
        k(   61) = (   0.0978481  -0.0267597   0.0000000), wk =   0.0190476
        k(   62) = (  -0.0257495  -0.0981187   0.0000000), wk =   0.0190476
        k(   63) = (   0.0978481   0.0267597   0.0000000), wk =   0.0190476
        k(   64) = (  -0.0720986   0.1010920   0.0000000), wk =   0.0190476
        k(   65) = (  -0.0514990   0.1129852   0.0000000), wk =   0.0190476
        k(   66) = (   0.1235976  -0.0118932   0.0000000), wk =   0.0190476
        k(   67) = (  -0.0514990  -0.1129852   0.0000000), wk =   0.0190476
        k(   68) = (   0.1235976   0.0118932   0.0000000), wk =   0.0190476
        k(   69) = (  -0.0720986   0.1308250   0.0000000), wk =   0.0190476
        k(   70) = (  -0.0772485   0.1278517   0.0000000), wk =   0.0190476
        k(   71) = (   0.1493470   0.0029733   0.0000000), wk =   0.0190476
        k(   72) = (  -0.0772485  -0.1278517   0.0000000), wk =   0.0190476
        k(   73) = (   0.1493470  -0.0029733   0.0000000), wk =   0.0190476
        k(   74) = (  -0.0720986  -0.0475727   0.0000000), wk =   0.0190476
        k(   75) = (   0.0772485   0.0386528   0.0000000), wk =   0.0190476
        k(   76) = (  -0.0051499  -0.0862256   0.0000000), wk =   0.0190476
        k(   77) = (   0.0772485  -0.0386528   0.0000000), wk =   0.0190476
        k(   78) = (  -0.0051499   0.0862256   0.0000000), wk =   0.0190476
        k(   79) = (  -0.0720986  -0.0178398   0.0000000), wk =   0.0190476
        k(   80) = (   0.0514990   0.0535193   0.0000000), wk =   0.0190476
        k(   81) = (   0.0205996  -0.0713591   0.0000000), wk =   0.0190476
        k(   82) = (   0.0514990  -0.0535193   0.0000000), wk =   0.0190476
        k(   83) = (   0.0205996   0.0713591   0.0000000), wk =   0.0190476
        k(   84) = (  -0.0720986   0.0118932   0.0000000), wk =   0.0190476
        k(   85) = (   0.0257495   0.0683858   0.0000000), wk =   0.0190476
        k(   86) = (   0.0463491  -0.0564926   0.0000000), wk =   0.0190476
        k(   87) = (   0.0257495  -0.0683858   0.0000000), wk =   0.0190476
        k(   88) = (   0.0463491   0.0564926   0.0000000), wk =   0.0190476

     Dense  grid:   406929 G-vectors     FFT dimensions: (  64,  64, 243)

     Smooth grid:   102965 G-vectors     FFT dimensions: (  40,  40, 160)

     Largest allocated arrays     est. size (Mb)     dimensions
        Kohn-Sham Wavefunctions        15.61 Mb     (   12953,   79)
        NL pseudopotentials            32.61 Mb     (   12953,  165)
        Each V/rho on FFT grid         15.19 Mb     (  995328)
        Each G-vector array             3.10 Mb     (  406929)
        G-vector shells                 0.13 Mb     (   16740)
     Largest temporary arrays     est. size (Mb)     dimensions
        Each subspace H/S matrix        0.10 Mb     (      79,   79)
        Each <psi_i|beta_j> matrix      0.20 Mb     (     165,   79)
        Arrays for rho mixing         121.50 Mb     (  995328,    8)

     Initial potential from superposition of free atoms
     Check: negative starting charge=   -1.473016

     starting charge  133.99987, renormalised to  138.00000

     negative rho (up, down):  1.517E+00 0.000E+00
     Starting wfc are  104 randomized atomic wfcs
